 # Fcc Ni oriented X=[100], Y=[010], Z=[001].
 
         864  atoms
           3  atom types
 
      0.00000000      21.34200000  xlo xhi
      0.00000000      21.34200000  ylo yhi
      0.00000000      21.34200000  zlo zhi
 
Atoms
 
         1    1        0.00000000       0.00000000       0.00000000
         2    2        1.77849993       1.77849993       0.00000000
         3    2        0.00000000       1.77849993       1.77849993
         4    3        1.77849993       0.00000000       1.77849993
         5    2        3.55700007       0.00000000       0.00000000
         6    2        5.33550000       1.77849993       0.00000000
         7    3        3.55700007       1.77849993       1.77849993
         8    2        5.33550000       0.00000000       1.77849993
         9    1        7.11399993       0.00000000       0.00000000
        10    1        8.89250007       1.77849993       0.00000000
        11    2        7.11399993       1.77849993       1.77849993
        12    2        8.89250007       0.00000000       1.77849993
        13    3       10.67100000       0.00000000       0.00000000
        14    3       12.44949993       1.77849993       0.00000000
        15    3       10.67100000       1.77849993       1.77849993
        16    2       12.44949993       0.00000000       1.77849993
        17    1       14.22800007       0.00000000       0.00000000
        18    2       16.00650000       1.77849993       0.00000000
        19    2       14.22800007       1.77849993       1.77849993
        20    1       16.00650000       0.00000000       1.77849993
        21    2       17.78499993       0.00000000       0.00000000
        22    2       19.56350007       1.77849993       0.00000000
        23    2       17.78499993       1.77849993       1.77849993
        24    2       19.56350007       0.00000000       1.77849993
        25    2        0.00000000       3.55700007       0.00000000
        26    2        1.77849993       5.33550000       0.00000000
        27    2        0.00000000       5.33550000       1.77849993
        28    2        1.77849993       3.55700007       1.77849993
        29    2        3.55700007       3.55700007       0.00000000
        30    2        5.33550000       5.33550000       0.00000000
        31    1        3.55700007       5.33550000       1.77849993
        32    3        5.33550000       3.55700007       1.77849993
        33    3        7.11399993       3.55700007       0.00000000
        34    2        8.89250007       5.33550000       0.00000000
        35    1        7.11399993       5.33550000       1.77849993
        36    3        8.89250007       3.55700007       1.77849993
        37    3       10.67100000       3.55700007       0.00000000
        38    1       12.44949993       5.33550000       0.00000000
        39    3       10.67100000       5.33550000       1.77849993
        40    2       12.44949993       3.55700007       1.77849993
        41    2       14.22800007       3.55700007       0.00000000
        42    2       16.00650000       5.33550000       0.00000000
        43    1       14.22800007       5.33550000       1.77849993
        44    2       16.00650000       3.55700007       1.77849993
        45    2       17.78499993       3.55700007       0.00000000
        46    3       19.56350007       5.33550000       0.00000000
        47    3       17.78499993       5.33550000       1.77849993
        48    2       19.56350007       3.55700007       1.77849993
        49    3        0.00000000       7.11399993       0.00000000
        50    3        1.77849993       8.89250007       0.00000000
        51    3        0.00000000       8.89250007       1.77849993
        52    3        1.77849993       7.11399993       1.77849993
        53    3        3.55700007       7.11399993       0.00000000
        54    3        5.33550000       8.89250007       0.00000000
        55    3        3.55700007       8.89250007       1.77849993
        56    1        5.33550000       7.11399993       1.77849993
        57    1        7.11399993       7.11399993       0.00000000
        58    3        8.89250007       8.89250007       0.00000000
        59    1        7.11399993       8.89250007       1.77849993
        60    3        8.89250007       7.11399993       1.77849993
        61    3       10.67100000       7.11399993       0.00000000
        62    3       12.44949993       8.89250007       0.00000000
        63    1       10.67100000       8.89250007       1.77849993
        64    1       12.44949993       7.11399993       1.77849993
        65    1       14.22800007       7.11399993       0.00000000
        66    3       16.00650000       8.89250007       0.00000000
        67    3       14.22800007       8.89250007       1.77849993
        68    2       16.00650000       7.11399993       1.77849993
        69    2       17.78499993       7.11399993       0.00000000
        70    2       19.56350007       8.89250007       0.00000000
        71    2       17.78499993       8.89250007       1.77849993
        72    3       19.56350007       7.11399993       1.77849993
        73    1        0.00000000      10.67100000       0.00000000
        74    3        1.77849993      12.44949993       0.00000000
        75    2        0.00000000      12.44949993       1.77849993
        76    1        1.77849993      10.67100000       1.77849993
        77    3        3.55700007      10.67100000       0.00000000
        78    1        5.33550000      12.44949993       0.00000000
        79    1        3.55700007      12.44949993       1.77849993
        80    1        5.33550000      10.67100000       1.77849993
        81    3        7.11399993      10.67100000       0.00000000
        82    2        8.89250007      12.44949993       0.00000000
        83    2        7.11399993      12.44949993       1.77849993
        84    2        8.89250007      10.67100000       1.77849993
        85    3       10.67100000      10.67100000       0.00000000
        86    2       12.44949993      12.44949993       0.00000000
        87    3       10.67100000      12.44949993       1.77849993
        88    3       12.44949993      10.67100000       1.77849993
        89    1       14.22800007      10.67100000       0.00000000
        90    1       16.00650000      12.44949993       0.00000000
        91    3       14.22800007      12.44949993       1.77849993
        92    3       16.00650000      10.67100000       1.77849993
        93    3       17.78499993      10.67100000       0.00000000
        94    3       19.56350007      12.44949993       0.00000000
        95    3       17.78499993      12.44949993       1.77849993
        96    3       19.56350007      10.67100000       1.77849993
        97    1        0.00000000      14.22800007       0.00000000
        98    1        1.77849993      16.00650000       0.00000000
        99    1        0.00000000      16.00650000       1.77849993
       100    1        1.77849993      14.22800007       1.77849993
       101    1        3.55700007      14.22800007       0.00000000
       102    1        5.33550000      16.00650000       0.00000000
       103    3        3.55700007      16.00650000       1.77849993
       104    3        5.33550000      14.22800007       1.77849993
       105    2        7.11399993      14.22800007       0.00000000
       106    3        8.89250007      16.00650000       0.00000000
       107    1        7.11399993      16.00650000       1.77849993
       108    1        8.89250007      14.22800007       1.77849993
       109    2       10.67100000      14.22800007       0.00000000
       110    3       12.44949993      16.00650000       0.00000000
       111    2       10.67100000      16.00650000       1.77849993
       112    2       12.44949993      14.22800007       1.77849993
       113    2       14.22800007      14.22800007       0.00000000
       114    2       16.00650000      16.00650000       0.00000000
       115    3       14.22800007      16.00650000       1.77849993
       116    2       16.00650000      14.22800007       1.77849993
       117    1       17.78499993      14.22800007       0.00000000
       118    2       19.56350007      16.00650000       0.00000000
       119    2       17.78499993      16.00650000       1.77849993
       120    3       19.56350007      14.22800007       1.77849993
       121    2        0.00000000      17.78499993       0.00000000
       122    2        1.77849993      19.56350007       0.00000000
       123    2        0.00000000      19.56350007       1.77849993
       124    2        1.77849993      17.78499993       1.77849993
       125    2        3.55700007      17.78499993       0.00000000
       126    3        5.33550000      19.56350007       0.00000000
       127    1        3.55700007      19.56350007       1.77849993
       128    2        5.33550000      17.78499993       1.77849993
       129    2        7.11399993      17.78499993       0.00000000
       130    3        8.89250007      19.56350007       0.00000000
       131    1        7.11399993      19.56350007       1.77849993
       132    3        8.89250007      17.78499993       1.77849993
       133    2       10.67100000      17.78499993       0.00000000
       134    3       12.44949993      19.56350007       0.00000000
       135    1       10.67100000      19.56350007       1.77849993
       136    2       12.44949993      17.78499993       1.77849993
       137    2       14.22800007      17.78499993       0.00000000
       138    2       16.00650000      19.56350007       0.00000000
       139    1       14.22800007      19.56350007       1.77849993
       140    3       16.00650000      17.78499993       1.77849993
       141    2       17.78499993      17.78499993       0.00000000
       142    2       19.56350007      19.56350007       0.00000000
       143    2       17.78499993      19.56350007       1.77849993
       144    1       19.56350007      17.78499993       1.77849993
       145    1        0.00000000       0.00000000       3.55700007
       146    3        1.77849993       1.77849993       3.55700007
       147    3        0.00000000       1.77849993       5.33550000
       148    3        1.77849993       0.00000000       5.33550000
       149    3        3.55700007       0.00000000       3.55700007
       150    2        5.33550000       1.77849993       3.55700007
       151    1        3.55700007       1.77849993       5.33550000
       152    1        5.33550000       0.00000000       5.33550000
       153    1        7.11399993       0.00000000       3.55700007
       154    1        8.89250007       1.77849993       3.55700007
       155    1        7.11399993       1.77849993       5.33550000
       156    3        8.89250007       0.00000000       5.33550000
       157    1       10.67100000       0.00000000       3.55700007
       158    2       12.44949993       1.77849993       3.55700007
       159    3       10.67100000       1.77849993       5.33550000
       160    3       12.44949993       0.00000000       5.33550000
       161    1       14.22800007       0.00000000       3.55700007
       162    2       16.00650000       1.77849993       3.55700007
       163    1       14.22800007       1.77849993       5.33550000
       164    2       16.00650000       0.00000000       5.33550000
       165    3       17.78499993       0.00000000       3.55700007
       166    1       19.56350007       1.77849993       3.55700007
       167    1       17.78499993       1.77849993       5.33550000
       168    1       19.56350007       0.00000000       5.33550000
       169    1        0.00000000       3.55700007       3.55700007
       170    1        1.77849993       5.33550000       3.55700007
       171    1        0.00000000       5.33550000       5.33550000
       172    1        1.77849993       3.55700007       5.33550000
       173    2        3.55700007       3.55700007       3.55700007
       174    1        5.33550000       5.33550000       3.55700007
       175    3        3.55700007       5.33550000       5.33550000
       176    1        5.33550000       3.55700007       5.33550000
       177    1        7.11399993       3.55700007       3.55700007
       178    3        8.89250007       5.33550000       3.55700007
       179    1        7.11399993       5.33550000       5.33550000
       180    2        8.89250007       3.55700007       5.33550000
       181    2       10.67100000       3.55700007       3.55700007
       182    3       12.44949993       5.33550000       3.55700007
       183    1       10.67100000       5.33550000       5.33550000
       184    3       12.44949993       3.55700007       5.33550000
       185    3       14.22800007       3.55700007       3.55700007
       186    3       16.00650000       5.33550000       3.55700007
       187    3       14.22800007       5.33550000       5.33550000
       188    1       16.00650000       3.55700007       5.33550000
       189    3       17.78499993       3.55700007       3.55700007
       190    1       19.56350007       5.33550000       3.55700007
       191    1       17.78499993       5.33550000       5.33550000
       192    2       19.56350007       3.55700007       5.33550000
       193    3        0.00000000       7.11399993       3.55700007
       194    2        1.77849993       8.89250007       3.55700007
       195    1        0.00000000       8.89250007       5.33550000
       196    3        1.77849993       7.11399993       5.33550000
       197    3        3.55700007       7.11399993       3.55700007
       198    2        5.33550000       8.89250007       3.55700007
       199    3        3.55700007       8.89250007       5.33550000
       200    1        5.33550000       7.11399993       5.33550000
       201    2        7.11399993       7.11399993       3.55700007
       202    3        8.89250007       8.89250007       3.55700007
       203    2        7.11399993       8.89250007       5.33550000
       204    2        8.89250007       7.11399993       5.33550000
       205    2       10.67100000       7.11399993       3.55700007
       206    1       12.44949993       8.89250007       3.55700007
       207    3       10.67100000       8.89250007       5.33550000
       208    2       12.44949993       7.11399993       5.33550000
       209    3       14.22800007       7.11399993       3.55700007
       210    3       16.00650000       8.89250007       3.55700007
       211    2       14.22800007       8.89250007       5.33550000
       212    3       16.00650000       7.11399993       5.33550000
       213    1       17.78499993       7.11399993       3.55700007
       214    2       19.56350007       8.89250007       3.55700007
       215    1       17.78499993       8.89250007       5.33550000
       216    1       19.56350007       7.11399993       5.33550000
       217    2        0.00000000      10.67100000       3.55700007
       218    3        1.77849993      12.44949993       3.55700007
       219    3        0.00000000      12.44949993       5.33550000
       220    1        1.77849993      10.67100000       5.33550000
       221    1        3.55700007      10.67100000       3.55700007
       222    1        5.33550000      12.44949993       3.55700007
       223    2        3.55700007      12.44949993       5.33550000
       224    2        5.33550000      10.67100000       5.33550000
       225    3        7.11399993      10.67100000       3.55700007
       226    3        8.89250007      12.44949993       3.55700007
       227    3        7.11399993      12.44949993       5.33550000
       228    3        8.89250007      10.67100000       5.33550000
       229    3       10.67100000      10.67100000       3.55700007
       230    3       12.44949993      12.44949993       3.55700007
       231    3       10.67100000      12.44949993       5.33550000
       232    1       12.44949993      10.67100000       5.33550000
       233    1       14.22800007      10.67100000       3.55700007
       234    1       16.00650000      12.44949993       3.55700007
       235    3       14.22800007      12.44949993       5.33550000
       236    3       16.00650000      10.67100000       5.33550000
       237    3       17.78499993      10.67100000       3.55700007
       238    3       19.56350007      12.44949993       3.55700007
       239    3       17.78499993      12.44949993       5.33550000
       240    1       19.56350007      10.67100000       5.33550000
       241    2        0.00000000      14.22800007       3.55700007
       242    2        1.77849993      16.00650000       3.55700007
       243    3        0.00000000      16.00650000       5.33550000
       244    2        1.77849993      14.22800007       5.33550000
       245    2        3.55700007      14.22800007       3.55700007
       246    3        5.33550000      16.00650000       3.55700007
       247    3        3.55700007      16.00650000       5.33550000
       248    2        5.33550000      14.22800007       5.33550000
       249    2        7.11399993      14.22800007       3.55700007
       250    2        8.89250007      16.00650000       3.55700007
       251    1        7.11399993      16.00650000       5.33550000
       252    1        8.89250007      14.22800007       5.33550000
       253    2       10.67100000      14.22800007       3.55700007
       254    2       12.44949993      16.00650000       3.55700007
       255    2       10.67100000      16.00650000       5.33550000
       256    1       12.44949993      14.22800007       5.33550000
       257    2       14.22800007      14.22800007       3.55700007
       258    1       16.00650000      16.00650000       3.55700007
       259    2       14.22800007      16.00650000       5.33550000
       260    1       16.00650000      14.22800007       5.33550000
       261    1       17.78499993      14.22800007       3.55700007
       262    1       19.56350007      16.00650000       3.55700007
       263    2       17.78499993      16.00650000       5.33550000
       264    2       19.56350007      14.22800007       5.33550000
       265    3        0.00000000      17.78499993       3.55700007
       266    3        1.77849993      19.56350007       3.55700007
       267    3        0.00000000      19.56350007       5.33550000
       268    2        1.77849993      17.78499993       5.33550000
       269    3        3.55700007      17.78499993       3.55700007
       270    2        5.33550000      19.56350007       3.55700007
       271    2        3.55700007      19.56350007       5.33550000
       272    3        5.33550000      17.78499993       5.33550000
       273    1        7.11399993      17.78499993       3.55700007
       274    1        8.89250007      19.56350007       3.55700007
       275    3        7.11399993      19.56350007       5.33550000
       276    3        8.89250007      17.78499993       5.33550000
       277    2       10.67100000      17.78499993       3.55700007
       278    2       12.44949993      19.56350007       3.55700007
       279    3       10.67100000      19.56350007       5.33550000
       280    1       12.44949993      17.78499993       5.33550000
       281    3       14.22800007      17.78499993       3.55700007
       282    3       16.00650000      19.56350007       3.55700007
       283    3       14.22800007      19.56350007       5.33550000
       284    3       16.00650000      17.78499993       5.33550000
       285    3       17.78499993      17.78499993       3.55700007
       286    3       19.56350007      19.56350007       3.55700007
       287    1       17.78499993      19.56350007       5.33550000
       288    1       19.56350007      17.78499993       5.33550000
       289    3        0.00000000       0.00000000       7.11399993
       290    1        1.77849993       1.77849993       7.11399993
       291    3        0.00000000       1.77849993       8.89250007
       292    2        1.77849993       0.00000000       8.89250007
       293    2        3.55700007       0.00000000       7.11399993
       294    2        5.33550000       1.77849993       7.11399993
       295    1        3.55700007       1.77849993       8.89250007
       296    3        5.33550000       0.00000000       8.89250007
       297    3        7.11399993       0.00000000       7.11399993
       298    1        8.89250007       1.77849993       7.11399993
       299    3        7.11399993       1.77849993       8.89250007
       300    3        8.89250007       0.00000000       8.89250007
       301    1       10.67100000       0.00000000       7.11399993
       302    3       12.44949993       1.77849993       7.11399993
       303    1       10.67100000       1.77849993       8.89250007
       304    1       12.44949993       0.00000000       8.89250007
       305    1       14.22800007       0.00000000       7.11399993
       306    3       16.00650000       1.77849993       7.11399993
       307    3       14.22800007       1.77849993       8.89250007
       308    1       16.00650000       0.00000000       8.89250007
       309    1       17.78499993       0.00000000       7.11399993
       310    1       19.56350007       1.77849993       7.11399993
       311    1       17.78499993       1.77849993       8.89250007
       312    2       19.56350007       0.00000000       8.89250007
       313    2        0.00000000       3.55700007       7.11399993
       314    1        1.77849993       5.33550000       7.11399993
       315    2        0.00000000       5.33550000       8.89250007
       316    2        1.77849993       3.55700007       8.89250007
       317    3        3.55700007       3.55700007       7.11399993
       318    2        5.33550000       5.33550000       7.11399993
       319    3        3.55700007       5.33550000       8.89250007
       320    2        5.33550000       3.55700007       8.89250007
       321    1        7.11399993       3.55700007       7.11399993
       322    1        8.89250007       5.33550000       7.11399993
       323    3        7.11399993       5.33550000       8.89250007
       324    3        8.89250007       3.55700007       8.89250007
       325    1       10.67100000       3.55700007       7.11399993
       326    3       12.44949993       5.33550000       7.11399993
       327    3       10.67100000       5.33550000       8.89250007
       328    3       12.44949993       3.55700007       8.89250007
       329    1       14.22800007       3.55700007       7.11399993
       330    1       16.00650000       5.33550000       7.11399993
       331    2       14.22800007       5.33550000       8.89250007
       332    3       16.00650000       3.55700007       8.89250007
       333    1       17.78499993       3.55700007       7.11399993
       334    2       19.56350007       5.33550000       7.11399993
       335    1       17.78499993       5.33550000       8.89250007
       336    3       19.56350007       3.55700007       8.89250007
       337    3        0.00000000       7.11399993       7.11399993
       338    2        1.77849993       8.89250007       7.11399993
       339    2        0.00000000       8.89250007       8.89250007
       340    2        1.77849993       7.11399993       8.89250007
       341    2        3.55700007       7.11399993       7.11399993
       342    3        5.33550000       8.89250007       7.11399993
       343    3        3.55700007       8.89250007       8.89250007
       344    1        5.33550000       7.11399993       8.89250007
       345    1        7.11399993       7.11399993       7.11399993
       346    1        8.89250007       8.89250007       7.11399993
       347    3        7.11399993       8.89250007       8.89250007
       348    1        8.89250007       7.11399993       8.89250007
       349    1       10.67100000       7.11399993       7.11399993
       350    3       12.44949993       8.89250007       7.11399993
       351    1       10.67100000       8.89250007       8.89250007
       352    1       12.44949993       7.11399993       8.89250007
       353    3       14.22800007       7.11399993       7.11399993
       354    3       16.00650000       8.89250007       7.11399993
       355    1       14.22800007       8.89250007       8.89250007
       356    3       16.00650000       7.11399993       8.89250007
       357    3       17.78499993       7.11399993       7.11399993
       358    1       19.56350007       8.89250007       7.11399993
       359    2       17.78499993       8.89250007       8.89250007
       360    2       19.56350007       7.11399993       8.89250007
       361    2        0.00000000      10.67100000       7.11399993
       362    1        1.77849993      12.44949993       7.11399993
       363    3        0.00000000      12.44949993       8.89250007
       364    3        1.77849993      10.67100000       8.89250007
       365    3        3.55700007      10.67100000       7.11399993
       366    1        5.33550000      12.44949993       7.11399993
       367    1        3.55700007      12.44949993       8.89250007
       368    3        5.33550000      10.67100000       8.89250007
       369    1        7.11399993      10.67100000       7.11399993
       370    1        8.89250007      12.44949993       7.11399993
       371    1        7.11399993      12.44949993       8.89250007
       372    1        8.89250007      10.67100000       8.89250007
       373    3       10.67100000      10.67100000       7.11399993
       374    2       12.44949993      12.44949993       7.11399993
       375    2       10.67100000      12.44949993       8.89250007
       376    2       12.44949993      10.67100000       8.89250007
       377    3       14.22800007      10.67100000       7.11399993
       378    2       16.00650000      12.44949993       7.11399993
       379    2       14.22800007      12.44949993       8.89250007
       380    3       16.00650000      10.67100000       8.89250007
       381    3       17.78499993      10.67100000       7.11399993
       382    2       19.56350007      12.44949993       7.11399993
       383    2       17.78499993      12.44949993       8.89250007
       384    3       19.56350007      10.67100000       8.89250007
       385    3        0.00000000      14.22800007       7.11399993
       386    3        1.77849993      16.00650000       7.11399993
       387    1        0.00000000      16.00650000       8.89250007
       388    2        1.77849993      14.22800007       8.89250007
       389    3        3.55700007      14.22800007       7.11399993
       390    1        5.33550000      16.00650000       7.11399993
       391    2        3.55700007      16.00650000       8.89250007
       392    2        5.33550000      14.22800007       8.89250007
       393    2        7.11399993      14.22800007       7.11399993
       394    2        8.89250007      16.00650000       7.11399993
       395    3        7.11399993      16.00650000       8.89250007
       396    1        8.89250007      14.22800007       8.89250007
       397    3       10.67100000      14.22800007       7.11399993
       398    3       12.44949993      16.00650000       7.11399993
       399    3       10.67100000      16.00650000       8.89250007
       400    1       12.44949993      14.22800007       8.89250007
       401    3       14.22800007      14.22800007       7.11399993
       402    3       16.00650000      16.00650000       7.11399993
       403    2       14.22800007      16.00650000       8.89250007
       404    3       16.00650000      14.22800007       8.89250007
       405    2       17.78499993      14.22800007       7.11399993
       406    1       19.56350007      16.00650000       7.11399993
       407    2       17.78499993      16.00650000       8.89250007
       408    1       19.56350007      14.22800007       8.89250007
       409    3        0.00000000      17.78499993       7.11399993
       410    2        1.77849993      19.56350007       7.11399993
       411    2        0.00000000      19.56350007       8.89250007
       412    1        1.77849993      17.78499993       8.89250007
       413    3        3.55700007      17.78499993       7.11399993
       414    2        5.33550000      19.56350007       7.11399993
       415    2        3.55700007      19.56350007       8.89250007
       416    2        5.33550000      17.78499993       8.89250007
       417    2        7.11399993      17.78499993       7.11399993
       418    3        8.89250007      19.56350007       7.11399993
       419    1        7.11399993      19.56350007       8.89250007
       420    1        8.89250007      17.78499993       8.89250007
       421    1       10.67100000      17.78499993       7.11399993
       422    2       12.44949993      19.56350007       7.11399993
       423    3       10.67100000      19.56350007       8.89250007
       424    3       12.44949993      17.78499993       8.89250007
       425    3       14.22800007      17.78499993       7.11399993
       426    1       16.00650000      19.56350007       7.11399993
       427    2       14.22800007      19.56350007       8.89250007
       428    2       16.00650000      17.78499993       8.89250007
       429    3       17.78499993      17.78499993       7.11399993
       430    1       19.56350007      19.56350007       7.11399993
       431    1       17.78499993      19.56350007       8.89250007
       432    3       19.56350007      17.78499993       8.89250007
       433    1        0.00000000       0.00000000      10.67100000
       434    1        1.77849993       1.77849993      10.67100000
       435    1        0.00000000       1.77849993      12.44949993
       436    1        1.77849993       0.00000000      12.44949993
       437    1        3.55700007       0.00000000      10.67100000